# vtk DataFile Version 2.0
Output for time 0.090000
ASCII
DATASET UNSTRUCTURED_GRID
POINTS 1764 float
5.073000e-03 0.000000e+00 0.000000e+00 
5.073000e-03 5.073000e-03 0.000000e+00 
0.000000e+00 5.073000e-03 0.000000e+00 
0.000000e+00 0.000000e+00 0.000000e+00 
1.027800e-02 0.000000e+00 0.000000e+00 
1.027800e-02 5.073000e-03 0.000000e+00 
1.651000e-02 0.000000e+00 0.000000e+00 
1.651000e-02 5.073000e-03 0.000000e+00 
2.405300e-02 0.000000e+00 0.000000e+00 
2.405300e-02 5.073000e-03 0.000000e+00 
3.304900e-02 0.000000e+00 0.000000e+00 
3.304900e-02 5.073000e-03 0.000000e+00 
4.377800e-02 0.000000e+00 0.000000e+00 
4.377800e-02 5.073000e-03 0.000000e+00 
5.626300e-02 0.000000e+00 0.000000e+00 
5.626300e-02 5.073000e-03 0.000000e+00 
6.996500e-02 0.000000e+00 0.000000e+00 
6.996500e-02 5.073000e-03 0.000000e+00 
8.612200e-02 0.000000e+00 0.000000e+00 
8.612200e-02 5.073000e-03 0.000000e+00 
1.053630e-01 0.000000e+00 0.000000e+00 
1.053630e-01 5.073000e-03 0.000000e+00 
1.277940e-01 0.000000e+00 0.000000e+00 
1.277940e-01 5.073000e-03 0.000000e+00 
1.527390e-01 0.000000e+00 0.000000e+00 
1.527390e-01 5.073000e-03 0.000000e+00 
1.795340e-01 0.000000e+00 0.000000e+00 
1.795340e-01 5.073000e-03 0.000000e+00 
2.091260e-01 0.000000e+00 0.000000e+00 
2.091260e-01 5.073000e-03 0.000000e+00 
2.433710e-01 0.000000e+00 0.000000e+00 
2.433710e-01 5.073000e-03 0.000000e+00 
2.824540e-01 0.000000e+00 0.000000e+00 
2.824540e-01 5.073000e-03 0.000000e+00 
3.256090e-01 0.000000e+00 0.000000e+00 
3.256090e-01 5.073000e-03 0.000000e+00 
3.722660e-01 0.000000e+00 0.000000e+00 
3.722660e-01 5.073000e-03 0.000000e+00 
4.218550e-01 0.000000e+00 0.000000e+00 
4.218550e-01 5.073000e-03 0.000000e+00 
4.736300e-01 0.000000e+00 0.000000e+00 
4.736300e-01 5.073000e-03 0.000000e+00 
5.263700e-01 0.000000e+00 0.000000e+00 
5.263700e-01 5.073000e-03 0.000000e+00 
5.781450e-01 0.000000e+00 0.000000e+00 
5.781450e-01 5.073000e-03 0.000000e+00 
6.277340e-01 0.000000e+00 0.000000e+00 
6.277340e-01 5.073000e-03 0.000000e+00 
6.743910e-01 0.000000e+00 0.000000e+00 
6.743910e-01 5.073000e-03 0.000000e+00 
7.175460e-01 0.000000e+00 0.000000e+00 
7.175460e-01 5.073000e-03 0.000000e+00 
7.566290e-01 0.000000e+00 0.000000e+00 
7.566290e-01 5.073000e-03 0.000000e+00 
7.908740e-01 0.000000e+00 0.000000e+00 
7.908740e-01 5.073000e-03 0.000000e+00 
8.204660e-01 0.000000e+00 0.000000e+00 
8.204660e-01 5.073000e-03 0.000000e+00 
8.472610e-01 0.000000e+00 0.000000e+00 
8.472610e-01 5.073000e-03 0.000000e+00 
8.722060e-01 0.000000e+00 0.000000e+00 
8.722060e-01 5.073000e-03 0.000000e+00 
8.946370e-01 0.000000e+00 0.000000e+00 
8.946370e-01 5.073000e-03 0.000000e+00 
9.138780e-01 0.000000e+00 0.000000e+00 
9.138780e-01 5.073000e-03 0.000000e+00 
9.300350e-01 0.000000e+00 0.000000e+00 
9.300350e-01 5.073000e-03 0.000000e+00 
9.437370e-01 0.000000e+00 0.000000e+00 
9.437370e-01 5.073000e-03 0.000000e+00 
9.562220e-01 0.000000e+00 0.000000e+00 
9.562220e-01 5.073000e-03 0.000000e+00 
9.669510e-01 0.000000e+00 0.000000e+00 
9.669510e-01 5.073000e-03 0.000000e+00 
9.759470e-01 0.000000e+00 0.000000e+00 
9.759470e-01 5.073000e-03 0.000000e+00 
9.834900e-01 0.000000e+00 0.000000e+00 
9.834900e-01 5.073000e-03 0.000000e+00 
9.897220e-01 0.000000e+00 0.000000e+00 
9.897220e-01 5.073000e-03 0.000000e+00 
9.949270e-01 0.000000e+00 0.000000e+00 
9.949270e-01 5.073000e-03 0.000000e+00 
1.000000e+00 0.000000e+00 0.000000e+00 
1.000000e+00 5.073000e-03 0.000000e+00 
5.073000e-03 1.027800e-02 0.000000e+00 
0.000000e+00 1.027800e-02 0.000000e+00 
1.027800e-02 1.027800e-02 0.000000e+00 
1.651000e-02 1.027800e-02 0.000000e+00 
2.405300e-02 1.027800e-02 0.000000e+00 
3.304900e-02 1.027800e-02 0.000000e+00 
4.377800e-02 1.027800e-02 0.000000e+00 
5.626300e-02 1.027800e-02 0.000000e+00 
6.996500e-02 1.027800e-02 0.000000e+00 
8.612200e-02 1.027800e-02 0.000000e+00 
1.053630e-01 1.027800e-02 0.000000e+00 
1.277940e-01 1.027800e-02 0.000000e+00 
1.527390e-01 1.027800e-02 0.000000e+00 
1.795340e-01 1.027800e-02 0.000000e+00 
2.091260e-01 1.027800e-02 0.000000e+00 
2.433710e-01 1.027800e-02 0.000000e+00 
2.824540e-01 1.027800e-02 0.000000e+00 
3.256090e-01 1.027800e-02 0.000000e+00 
3.722660e-01 1.027800e-02 0.000000e+00 
4.218550e-01 1.027800e-02 0.000000e+00 
4.736300e-01 1.027800e-02 0.000000e+00 
5.263700e-01 1.027800e-02 0.000000e+00 
5.781450e-01 1.027800e-02 0.000000e+00 
6.277340e-01 1.027800e-02 0.000000e+00 
6.743910e-01 1.027800e-02 0.000000e+00 
7.175460e-01 1.027800e-02 0.000000e+00 
7.566290e-01 1.027800e-02 0.000000e+00 
7.908740e-01 1.027800e-02 0.000000e+00 
8.204660e-01 1.027800e-02 0.000000e+00 
8.472610e-01 1.027800e-02 0.000000e+00 
8.722060e-01 1.027800e-02 0.000000e+00 
8.946370e-01 1.027800e-02 0.000000e+00 
9.138780e-01 1.027800e-02 0.000000e+00 
9.300350e-01 1.027800e-02 0.000000e+00 
9.437370e-01 1.027800e-02 0.000000e+00 
9.562220e-01 1.027800e-02 0.000000e+00 
9.669510e-01 1.027800e-02 0.000000e+00 
9.759470e-01 1.027800e-02 0.000000e+00 
9.834900e-01 1.027800e-02 0.000000e+00 
9.897220e-01 1.027800e-02 0.000000e+00 
9.949270e-01 1.027800e-02 0.000000e+00 
1.000000e+00 1.027800e-02 0.000000e+00 
5.073000e-03 1.651000e-02 0.000000e+00 
0.000000e+00 1.651000e-02 0.000000e+00 
1.027800e-02 1.651000e-02 0.000000e+00 
1.651000e-02 1.651000e-02 0.000000e+00 
2.405300e-02 1.651000e-02 0.000000e+00 
3.304900e-02 1.651000e-02 0.000000e+00 
4.377800e-02 1.651000e-02 0.000000e+00 
5.626300e-02 1.651000e-02 0.000000e+00 
6.996500e-02 1.651000e-02 0.000000e+00 
8.612200e-02 1.651000e-02 0.000000e+00 
1.053630e-01 1.651000e-02 0.000000e+00 
1.277940e-01 1.651000e-02 0.000000e+00 
1.527390e-01 1.651000e-02 0.000000e+00 
1.795340e-01 1.651000e-02 0.000000e+00 
2.091260e-01 1.651000e-02 0.000000e+00 
2.433710e-01 1.651000e-02 0.000000e+00 
2.824540e-01 1.651000e-02 0.000000e+00 
3.256090e-01 1.651000e-02 0.000000e+00 
3.722660e-01 1.651000e-02 0.000000e+00 
4.218550e-01 1.651000e-02 0.000000e+00 
4.736300e-01 1.651000e-02 0.000000e+00 
5.263700e-01 1.651000e-02 0.000000e+00 
5.781450e-01 1.651000e-02 0.000000e+00 
6.277340e-01 1.651000e-02 0.000000e+00 
6.743910e-01 1.651000e-02 0.000000e+00 
7.175460e-01 1.651000e-02 0.000000e+00 
7.566290e-01 1.651000e-02 0.000000e+00 
7.908740e-01 1.651000e-02 0.000000e+00 
8.204660e-01 1.651000e-02 0.000000e+00 
8.472610e-01 1.651000e-02 0.000000e+00 
8.722060e-01 1.651000e-02 0.000000e+00 
8.946370e-01 1.651000e-02 0.000000e+00 
9.138780e-01 1.651000e-02 0.000000e+00 
9.300350e-01 1.651000e-02 0.000000e+00 
9.437370e-01 1.651000e-02 0.000000e+00 
9.562220e-01 1.651000e-02 0.000000e+00 
9.669510e-01 1.651000e-02 0.000000e+00 
9.759470e-01 1.651000e-02 0.000000e+00 
9.834900e-01 1.651000e-02 0.000000e+00 
9.897220e-01 1.651000e-02 0.000000e+00 
9.949270e-01 1.651000e-02 0.000000e+00 
1.000000e+00 1.651000e-02 0.000000e+00 
5.073000e-03 2.405300e-02 0.000000e+00 
0.000000e+00 2.405300e-02 0.000000e+00 
1.027800e-02 2.405300e-02 0.000000e+00 
1.651000e-02 2.405300e-02 0.000000e+00 
2.405300e-02 2.405300e-02 0.000000e+00 
3.304900e-02 2.405300e-02 0.000000e+00 
4.377800e-02 2.405300e-02 0.000000e+00 
5.626300e-02 2.405300e-02 0.000000e+00 
6.996500e-02 2.405300e-02 0.000000e+00 
8.612200e-02 2.405300e-02 0.000000e+00 
1.053630e-01 2.405300e-02 0.000000e+00 
1.277940e-01 2.405300e-02 0.000000e+00 
1.527390e-01 2.405300e-02 0.000000e+00 
1.795340e-01 2.405300e-02 0.000000e+00 
2.091260e-01 2.405300e-02 0.000000e+00 
2.433710e-01 2.405300e-02 0.000000e+00 
2.824540e-01 2.405300e-02 0.000000e+00 
3.256090e-01 2.405300e-02 0.000000e+00 
3.722660e-01 2.405300e-02 0.000000e+00 
4.218550e-01 2.405300e-02 0.000000e+00 
4.736300e-01 2.405300e-02 0.000000e+00 
5.263700e-01 2.405300e-02 0.000000e+00 
5.781450e-01 2.405300e-02 0.000000e+00 
6.277340e-01 2.405300e-02 0.000000e+00 
6.743910e-01 2.405300e-02 0.000000e+00 
7.175460e-01 2.405300e-02 0.000000e+00 
7.566290e-01 2.405300e-02 0.000000e+00 
7.908740e-01 2.405300e-02 0.000000e+00 
8.204660e-01 2.405300e-02 0.000000e+00 
8.472610e-01 2.405300e-02 0.000000e+00 
8.722060e-01 2.405300e-02 0.000000e+00 
8.946370e-01 2.405300e-02 0.000000e+00 
9.138780e-01 2.405300e-02 0.000000e+00 
9.300350e-01 2.405300e-02 0.000000e+00 
9.437370e-01 2.405300e-02 0.000000e+00 
9.562220e-01 2.405300e-02 0.000000e+00 
9.669510e-01 2.405300e-02 0.000000e+00 
9.759470e-01 2.405300e-02 0.000000e+00 
9.834900e-01 2.405300e-02 0.000000e+00 
9.897220e-01 2.405300e-02 0.000000e+00 
9.949270e-01 2.405300e-02 0.000000e+00 
1.000000e+00 2.405300e-02 0.000000e+00 
5.073000e-03 3.304900e-02 0.000000e+00 
0.000000e+00 3.304900e-02 0.000000e+00 
1.027800e-02 3.304900e-02 0.000000e+00 
1.651000e-02 3.304900e-02 0.000000e+00 
2.405300e-02 3.304900e-02 0.000000e+00 
3.304900e-02 3.304900e-02 0.000000e+00 
4.377800e-02 3.304900e-02 0.000000e+00 
5.626300e-02 3.304900e-02 0.000000e+00 
6.996500e-02 3.304900e-02 0.000000e+00 
8.612200e-02 3.304900e-02 0.000000e+00 
1.053630e-01 3.304900e-02 0.000000e+00 
1.277940e-01 3.304900e-02 0.000000e+00 
1.527390e-01 3.304900e-02 0.000000e+00 
1.795340e-01 3.304900e-02 0.000000e+00 
2.091260e-01 3.304900e-02 0.000000e+00 
2.433710e-01 3.304900e-02 0.000000e+00 
2.824540e-01 3.304900e-02 0.000000e+00 
3.256090e-01 3.304900e-02 0.000000e+00 
3.722660e-01 3.304900e-02 0.000000e+00 
4.218550e-01 3.304900e-02 0.000000e+00 
4.736300e-01 3.304900e-02 0.000000e+00 
5.263700e-01 3.304900e-02 0.000000e+00 
5.781450e-01 3.304900e-02 0.000000e+00 
6.277340e-01 3.304900e-02 0.000000e+00 
6.743910e-01 3.304900e-02 0.000000e+00 
7.175460e-01 3.304900e-02 0.000000e+00 
7.566290e-01 3.304900e-02 0.000000e+00 
7.908740e-01 3.304900e-02 0.000000e+00 
8.204660e-01 3.304900e-02 0.000000e+00 
8.472610e-01 3.304900e-02 0.000000e+00 
8.722060e-01 3.304900e-02 0.000000e+00 
8.946370e-01 3.304900e-02 0.000000e+00 
9.138780e-01 3.304900e-02 0.000000e+00 
9.300350e-01 3.304900e-02 0.000000e+00 
9.437370e-01 3.304900e-02 0.000000e+00 
9.562220e-01 3.304900e-02 0.000000e+00 
9.669510e-01 3.304900e-02 0.000000e+00 
[...]
POINT_DATA 1764
VECTORS FID_Velocity float
0.000000e+00 0.000000e+00 0.000000e+00 
1.096891e-02 -1.096617e-02 0.000000e+00 
0.000000e+00 0.000000e+00 0.000000e+00 
0.000000e+00 0.000000e+00 0.000000e+00 
0.000000e+00 0.000000e+00 0.000000e+00 
3.287207e-02 -2.950338e-02 0.000000e+00 
0.000000e+00 0.000000e+00 0.000000e+00 
7.953622e-02 -5.390803e-02 0.000000e+00 
0.000000e+00 0.000000e+00 0.000000e+00 
1.630005e-01 -8.006220e-02 0.000000e+00 
0.000000e+00 0.000000e+00 0.000000e+00 
2.905416e-01 -1.024482e-01 0.000000e+00 
0.000000e+00 0.000000e+00 0.000000e+00 
4.632110e-01 -1.158534e-01 0.000000e+00 
0.000000e+00 0.000000e+00 0.000000e+00 
6.676961e-01 -1.155518e-01 0.000000e+00 
0.000000e+00 0.000000e+00 0.000000e+00 
8.723233e-01 -1.013041e-01 0.000000e+00 
0.000000e+00 0.000000e+00 0.000000e+00 
1.057380e+00 -7.322356e-02 0.000000e+00 
0.000000e+00 0.000000e+00 0.000000e+00 
1.183685e+00 -3.278944e-02 0.000000e+00 
0.000000e+00 0.000000e+00 0.000000e+00 
1.193838e+00 1.560108e-02 0.000000e+00 
0.000000e+00 0.000000e+00 0.000000e+00 
1.035304e+00 6.563461e-02 0.000000e+00 
0.000000e+00 0.000000e+00 0.000000e+00 
6.754649e-01 1.159297e-01 0.000000e+00 
0.000000e+00 0.000000e+00 0.000000e+00 
2.912669e-02 1.712989e-01 0.000000e+00 
0.000000e+00 0.000000e+00 0.000000e+00 
-1.112101e+00 2.498432e-01 0.000000e+00 
0.000000e+00 0.000000e+00 0.000000e+00 
-2.993712e+00 3.929751e-01 0.000000e+00 
0.000000e+00 0.000000e+00 0.000000e+00 
-5.875561e+00 5.430058e-01 0.000000e+00 
0.000000e+00 0.000000e+00 0.000000e+00 
-9.814136e+00 6.582757e-01 0.000000e+00 
0.000000e+00 0.000000e+00 0.000000e+00 
-1.432564e+01 6.530779e-01 0.000000e+00 
0.000000e+00 0.000000e+00 0.000000e+00 
-1.816410e+01 4.314708e-01 0.000000e+00 
0.000000e+00 0.000000e+00 0.000000e+00 
-1.954290e+01 -3.748650e-02 0.000000e+00 
0.000000e+00 0.000000e+00 0.000000e+00 
-1.721924e+01 -6.233071e-01 0.000000e+00 
0.000000e+00 0.000000e+00 0.000000e+00 
-1.152235e+01 -1.082075e+00 0.000000e+00 
0.000000e+00 0.000000e+00 0.000000e+00 
-4.357853e+00 -1.174862e+00 0.000000e+00 
0.000000e+00 0.000000e+00 0.000000e+00 
1.993694e+00 -8.908978e-01 0.000000e+00 
0.000000e+00 0.000000e+00 0.000000e+00 
5.834636e+00 -4.558547e-01 0.000000e+00 
0.000000e+00 0.000000e+00 0.000000e+00 
7.119715e+00 -2.713133e-02 0.000000e+00 
0.000000e+00 0.000000e+00 0.000000e+00 
6.948140e+00 2.238053e-01 0.000000e+00 
0.000000e+00 0.000000e+00 0.000000e+00 
6.037897e+00 3.485394e-01 0.000000e+00 
0.000000e+00 0.000000e+00 0.000000e+00 
4.843598e+00 3.949673e-01 0.000000e+00 
0.000000e+00 0.000000e+00 0.000000e+00 
3.657124e+00 3.883468e-01 0.000000e+00 
0.000000e+00 0.000000e+00 0.000000e+00 
2.646270e+00 3.555267e-01 0.000000e+00 
0.000000e+00 0.000000e+00 0.000000e+00 
1.843433e+00 3.128083e-01 0.000000e+00 
0.000000e+00 0.000000e+00 0.000000e+00 
1.217946e+00 2.660429e-01 0.000000e+00 
0.000000e+00 0.000000e+00 0.000000e+00 
7.225986e-01 2.095579e-01 0.000000e+00 
0.000000e+00 0.000000e+00 0.000000e+00 
3.760925e-01 1.493111e-01 0.000000e+00 
0.000000e+00 0.000000e+00 0.000000e+00 
1.612737e-01 9.139663e-02 0.000000e+00 
0.000000e+00 0.000000e+00 0.000000e+00 
4.807588e-02 4.183291e-02 0.000000e+00 
0.000000e+00 0.000000e+00 0.000000e+00 
1.500172e-03 7.470570e-03 0.000000e+00 
0.000000e+00 0.000000e+00 0.000000e+00 
-7.169275e-03 -7.548972e-03 0.000000e+00 
0.000000e+00 0.000000e+00 0.000000e+00 
0.000000e+00 0.000000e+00 0.000000e+00 
2.951960e-02 -3.287459e-02 0.000000e+00 
0.000000e+00 0.000000e+00 0.000000e+00 
7.819939e-02 -7.818029e-02 0.000000e+00 
1.696945e-01 -1.344984e-01 0.000000e+00 
3.254013e-01 -1.935035e-01 0.000000e+00 
5.586675e-01 -2.433500e-01 0.000000e+00 
8.723695e-01 -2.724384e-01 0.000000e+00 
1.242542e+00 -2.701540e-01 0.000000e+00 
1.609456e+00 -2.353904e-01 0.000000e+00 
1.935505e+00 -1.677891e-01 0.000000e+00 
2.141797e+00 -7.064084e-02 0.000000e+00 
2.113464e+00 4.634196e-02 0.000000e+00 
1.742116e+00 1.690984e-01 0.000000e+00 
9.555527e-01 2.930553e-01 0.000000e+00 
-4.257377e-01 4.306673e-01 0.000000e+00 
-2.808111e+00 6.372821e-01 0.000000e+00 
-6.677337e+00 9.700045e-01 0.000000e+00 
-1.249546e+01 1.319892e+00 0.000000e+00 
-2.028132e+01 1.580120e+00 0.000000e+00 
-2.898805e+01 1.546369e+00 0.000000e+00 
-3.615320e+01 1.002944e+00 0.000000e+00 
-3.844503e+01 -1.053282e-01 0.000000e+00 
-3.372385e+01 -1.471788e+00 0.000000e+00 
-2.279406e+01 -2.539335e+00 0.000000e+00 
-9.215718e+00 -2.778937e+00 0.000000e+00 
2.860131e+00 -2.152041e+00 0.000000e+00 
1.034074e+01 -1.146301e+00 0.000000e+00 
1.306621e+01 -1.410439e-01 0.000000e+00 
1.297762e+01 4.727666e-01 0.000000e+00 
1.142665e+01 7.921689e-01 0.000000e+00 
9.262283e+00 9.218168e-01 0.000000e+00 
7.055369e+00 9.226700e-01 0.000000e+00 
5.147795e+00 8.569090e-01 0.000000e+00 
3.621721e+00 7.633678e-01 0.000000e+00 
2.430419e+00 6.564650e-01 0.000000e+00 
1.483434e+00 5.267241e-01 0.000000e+00 
8.170224e-01 3.871970e-01 0.000000e+00 
3.961615e-01 2.521524e-01 0.000000e+00 
1.606640e-01 1.339529e-01 0.000000e+00 
4.863323e-02 4.696969e-02 0.000000e+00 
8.369642e-03 9.801726e-04 0.000000e+00 
0.000000e+00 0.000000e+00 0.000000e+00 
5.401209e-02 -7.958668e-02 0.000000e+00 
0.000000e+00 0.000000e+00 0.000000e+00 
1.347174e-01 -1.697423e-01 0.000000e+00 
2.744373e-01 -2.741342e-01 0.000000e+00 
5.016500e-01 -3.800387e-01 0.000000e+00 
8.340130e-01 -4.673251e-01 0.000000e+00 
1.275651e+00 -5.154749e-01 0.000000e+00 
1.792048e+00 -5.056478e-01 0.000000e+00 
2.295957e+00 -4.350111e-01 0.000000e+00 
2.729347e+00 -3.013767e-01 0.000000e+00 
2.967037e+00 -1.098967e-01 0.000000e+00 
2.827597e+00 1.229990e-01 0.000000e+00 
2.134138e+00 3.721666e-01 0.000000e+00 
7.592570e-01 6.267051e-01 0.000000e+00 
-1.590309e+00 9.148302e-01 0.000000e+00 
-5.550443e+00 1.350521e+00 0.000000e+00 
-1.187394e+01 1.984347e+00 0.000000e+00 
-2.117907e+01 2.644107e+00 0.000000e+00 
-3.331797e+01 3.101872e+00 0.000000e+00 
-4.648454e+01 2.963979e+00 0.000000e+00 
-5.685313e+01 1.850890e+00 0.000000e+00 
-5.962496e+01 -2.884979e-01 0.000000e+00 
-5.205619e+01 -2.859296e+00 0.000000e+00 
-3.565034e+01 -4.846743e+00 0.000000e+00 
-1.555439e+01 -5.330731e+00 0.000000e+00 
2.407933e+00 -4.211381e+00 0.000000e+00 
1.386658e+01 -2.342463e+00 0.000000e+00 
1.845324e+01 -4.452038e-01 0.000000e+00 
1.877839e+01 7.698436e-01 0.000000e+00 
1.682332e+01 1.435125e+00 0.000000e+00 
1.382025e+01 1.730417e+00 0.000000e+00 
1.064390e+01 1.771185e+00 0.000000e+00 
7.844238e+00 1.673761e+00 0.000000e+00 
5.581596e+00 1.513310e+00 0.000000e+00 
3.807323e+00 1.319300e+00 0.000000e+00 
2.388396e+00 1.080476e+00 0.000000e+00 
1.380062e+00 8.198263e-01 0.000000e+00 
7.282511e-01 5.636535e-01 0.000000e+00 
3.424571e-01 3.352165e-01 0.000000e+00 
1.390982e-01 1.595400e-01 0.000000e+00 
4.426317e-02 4.859526e-02 0.000000e+00 
0.000000e+00 0.000000e+00 0.000000e+00 
8.049282e-02 -1.633263e-01 0.000000e+00 
0.000000e+00 0.000000e+00 0.000000e+00 
1.944714e-01 -3.258990e-01 0.000000e+00 
3.816913e-01 -5.016812e-01 0.000000e+00 
6.750623e-01 -6.729938e-01 0.000000e+00 
1.093454e+00 -8.091853e-01 0.000000e+00 
1.639348e+00 -8.777689e-01 0.000000e+00 
2.266483e+00 -8.482719e-01 0.000000e+00 
2.861552e+00 -7.152323e-01 0.000000e+00 
3.341327e+00 -4.721723e-01 0.000000e+00 
3.526762e+00 -1.248505e-01 0.000000e+00 
3.159306e+00 3.030994e-01 0.000000e+00 
1.977477e+00 7.702017e-01 0.000000e+00 
-2.210102e-01 1.254433e+00 0.000000e+00 
-3.863033e+00 1.817657e+00 0.000000e+00 
-9.860512e+00 2.644150e+00 0.000000e+00 
-1.924942e+01 3.759089e+00 0.000000e+00 
-3.271286e+01 4.888957e+00 0.000000e+00 
-4.973382e+01 5.587938e+00 0.000000e+00 
-6.749027e+01 5.170424e+00 0.000000e+00 
-8.068940e+01 3.054489e+00 0.000000e+00 
-8.331353e+01 -7.272370e-01 0.000000e+00 
-7.246303e+01 -5.114439e+00 0.000000e+00 
-5.054396e+01 -8.452228e+00 0.000000e+00 
-2.406488e+01 -9.315969e+00 0.000000e+00 
-1.885875e-01 -7.504719e+00 0.000000e+00 
1.560154e+01 -4.372154e+00 0.000000e+00 
2.260409e+01 -1.127534e+00 0.000000e+00 
2.382929e+01 1.055772e+00 0.000000e+00 
2.186017e+01 2.317943e+00 0.000000e+00 
1.827770e+01 2.928164e+00 0.000000e+00 
1.427579e+01 3.078046e+00 0.000000e+00 
1.064972e+01 2.964743e+00 0.000000e+00 
7.675353e+00 2.721222e+00 0.000000e+00 
5.323305e+00 2.404125e+00 0.000000e+00 
3.424359e+00 2.005033e+00 0.000000e+00 
2.055523e+00 1.563096e+00 0.000000e+00 
1.147062e+00 1.123218e+00 0.000000e+00 
5.835149e-01 7.232844e-01 0.000000e+00 
2.647095e-01 3.999863e-01 0.000000e+00 
9.717618e-02 1.658622e-01 0.000000e+00 
0.000000e+00 0.000000e+00 0.000000e+00 
1.036986e-01 -2.919149e-01 0.000000e+00 
0.000000e+00 0.000000e+00 0.000000e+00 
2.461451e-01 -5.608702e-01 0.000000e+00 
4.721271e-01 -8.358339e-01 0.000000e+00 
8.159492e-01 -1.092309e+00 0.000000e+00 
1.293915e+00 -1.286385e+00 0.000000e+00 
1.902003e+00 -1.370152e+00 0.000000e+00 
2.579128e+00 -1.298051e+00 0.000000e+00 
3.188343e+00 -1.061637e+00 0.000000e+00 
3.613749e+00 -6.451726e-01 0.000000e+00 
3.614814e+00 -5.120922e-02 0.000000e+00 
2.844887e+00 6.895888e-01 0.000000e+00 
9.389475e-01 1.509186e+00 0.000000e+00 
-2.392233e+00 2.376319e+00 0.000000e+00 
-7.737507e+00 3.413929e+00 0.000000e+00 
-1.633149e+01 4.867483e+00 0.000000e+00 
-2.947405e+01 6.715801e+00 0.000000e+00 
-4.775107e+01 8.503775e+00 0.000000e+00 
-6.999053e+01 9.425800e+00 0.000000e+00 
-9.209698e+01 8.388774e+00 0.000000e+00 
-1.073856e+02 4.616288e+00 0.000000e+00 
-1.091390e+02 -1.617323e+00 0.000000e+00 
-9.484802e+01 -8.564699e+00 0.000000e+00 
-6.785631e+01 -1.376166e+01 0.000000e+00 
-3.556875e+01 -1.518567e+01 0.000000e+00 
-6.021236e+00 -1.251889e+01 0.000000e+00 
1.438643e+01 -7.636233e+00 0.000000e+00 
2.444592e+01 -2.483621e+00 0.000000e+00 
2.722414e+01 1.154853e+00 0.000000e+00 
2.582159e+01 3.383977e+00 0.000000e+00 
2.210691e+01 4.549692e+00 0.000000e+00 
1.757992e+01 4.936745e+00 0.000000e+00 
1.330891e+01 4.853745e+00 0.000000e+00 
9.727644e+00 4.521540e+00 0.000000e+00 
6.856563e+00 4.044588e+00 0.000000e+00 
4.506787e+00 3.426851e+00 0.000000e+00 
2.782960e+00 2.733411e+00 0.000000e+00 
1.609821e+00 2.035104e+00 0.000000e+00 
8.562739e-01 1.386026e+00 0.000000e+00 
4.102083e-01 8.342635e-01 0.000000e+00 
1.601354e-01 3.906154e-01 0.000000e+00 
0.000000e+00 0.000000e+00 0.000000e+00 
1.185877e-01 -4.674807e-01 0.000000e+00 
0.000000e+00 0.000000e+00 0.000000e+00 
2.783911e-01 -8.790877e-01 0.000000e+00 
5.252814e-01 -1.282269e+00 0.000000e+00 
8.910539e-01 -1.641551e+00 0.000000e+00 
1.384757e+00 -1.895342e+00 0.000000e+00 
1.989446e+00 -1.975981e+00 0.000000e+00 
2.624275e+00 -1.819016e+00 0.000000e+00 
3.131365e+00 -1.414634e+00 0.000000e+00 
3.350762e+00 -7.303468e-01 0.000000e+00 
2.971470e+00 2.444305e-01 0.000000e+00 
1.540121e+00 1.466485e+00 0.000000e+00 
-1.424051e+00 2.834942e+00 0.000000e+00 
-6.303994e+00 4.326478e+00 0.000000e+00 
-1.388876e+01 6.133236e+00 0.000000e+00 
-2.577571e+01 8.548768e+00 0.000000e+00 
-4.345017e+01 1.145905e+01 0.000000e+00 
-6.714173e+01 1.408137e+01 0.000000e+00 
-9.466175e+01 1.506411e+01 0.000000e+00 
-1.204753e+02 1.281785e+01 0.000000e+00 
-1.368759e+02 6.479708e+00 0.000000e+00 
-1.372023e+02 -3.190415e+00 0.000000e+00 
-1.197811e+02 -1.354160e+01 0.000000e+00 
-8.863107e+01 -2.119218e+01 0.000000e+00 
-5.141272e+01 -2.346908e+01 0.000000e+00 
-1.655396e+01 -1.986181e+01 0.000000e+00 
8.838482e+00 -1.268736e+01 0.000000e+00 
2.271834e+01 -5.008776e+00 0.000000e+00 
2.789897e+01 7.093687e-01 0.000000e+00 
2.784234e+01 4.428545e+00 0.000000e+00 
2.464860e+01 6.524628e+00 0.000000e+00 
2.007525e+01 7.372403e+00 0.000000e+00 
1.547706e+01 7.422384e+00 0.000000e+00 
1.148949e+01 7.025234e+00 0.000000e+00 
8.224891e+00 6.364881e+00 0.000000e+00 
5.504285e+00 5.473484e+00 0.000000e+00 
3.469688e+00 4.453768e+00 0.000000e+00 
2.055188e+00 3.409404e+00 0.000000e+00 
1.124255e+00 2.411675e+00 0.000000e+00 
5.564976e-01 1.522508e+00 0.000000e+00 
2.243152e-01 7.537322e-01 0.000000e+00 
0.000000e+00 0.000000e+00 0.000000e+00 
1.198141e-01 -6.776149e-01 0.000000e+00 
0.000000e+00 0.000000e+00 0.000000e+00 
2.789732e-01 -1.257309e+00 0.000000e+00 
5.187373e-01 -1.805982e+00 0.000000e+00 
8.627275e-01 -2.271723e+00 0.000000e+00 
1.307078e+00 -2.569383e+00 0.000000e+00 
1.813823e+00 -2.606207e+00 0.000000e+00 
2.276126e+00 -2.294956e+00 0.000000e+00 
2.519561e+00 -1.627068e+00 0.000000e+00 
2.327131e+00 -5.431289e-01 0.000000e+00 
1.302020e+00 9.881816e-01 0.000000e+00 
-1.134779e+00 2.909925e+00 0.000000e+00 
-5.572552e+00 5.101105e+00 0.000000e+00 
-1.250144e+01 7.548794e+00 0.000000e+00 
-2.293512e+01 1.050392e+01 0.000000e+00 
-3.883230e+01 1.429507e+01 0.000000e+00 
-6.169567e+01 1.860342e+01 0.000000e+00 
-9.104197e+01 2.210753e+01 0.000000e+00 
-1.233432e+02 2.273264e+01 0.000000e+00 
-1.517705e+02 1.842725e+01 0.000000e+00 
-1.683554e+02 8.494095e+00 0.000000e+00 
-1.672692e+02 -5.565793e+00 0.000000e+00 
-1.477235e+02 -2.010862e+01 0.000000e+00 
-1.138207e+02 -3.084961e+01 0.000000e+00 
-7.281387e+01 -3.442806e+01 0.000000e+00 
-3.309142e+01 -2.998180e+01 0.000000e+00 
-2.336197e+00 -2.017737e+01 0.000000e+00 
1.617962e+01 -9.359179e+00 0.000000e+00 
2.471658e+01 -8.568845e-01 0.000000e+00 
2.691994e+01 4.983342e+00 0.000000e+00 
2.507070e+01 8.523702e+00 0.000000e+00 
2.110582e+01 1.017832e+01 0.000000e+00 
1.665004e+01 1.055221e+01 0.000000e+00 
1.257798e+01 1.017378e+01 0.000000e+00 
9.139281e+00 9.349001e+00 0.000000e+00 
6.207646e+00 8.158431e+00 0.000000e+00 
3.971708e+00 6.753558e+00 0.000000e+00 
2.390313e+00 5.278674e+00 0.000000e+00 
1.331979e+00 3.826853e+00 0.000000e+00 
6.732646e-01 2.481833e+00 0.000000e+00 
2.765723e-01 1.263265e+00 0.000000e+00 
0.000000e+00 0.000000e+00 0.000000e+00 
1.049538e-01 -8.886680e-01 0.000000e+00 
0.000000e+00 0.000000e+00 0.000000e+00 
2.415493e-01 -1.630561e+00 0.000000e+00 
4.394718e-01 -2.309655e+00 0.000000e+00 
7.074090e-01 -2.853290e+00 0.000000e+00 
1.022528e+00 -3.148529e+00 0.000000e+00 
1.318855e+00 -3.072998e+00 0.000000e+00 
1.457055e+00 -2.514602e+00 0.000000e+00 
1.251659e+00 -1.469399e+00 0.000000e+00 
4.170158e-01 1.603749e-01 0.000000e+00 
-1.546807e+00 2.434589e+00 0.000000e+00 
-5.344851e+00 5.299547e+00 0.000000e+00 
-1.166777e+01 8.623301e+00 0.000000e+00 
-2.110370e+01 1.238433e+01 0.000000e+00 
-3.488311e+01 1.687841e+01 0.000000e+00 
-5.524731e+01 2.241343e+01 0.000000e+00 
-8.345936e+01 2.829483e+01 0.000000e+00 
-1.179831e+02 3.245137e+01 0.000000e+00 
-1.539103e+02 3.204655e+01 0.000000e+00 
-1.837224e+02 2.480624e+01 0.000000e+00 
-2.000838e+02 1.050992e+01 0.000000e+00 
-1.983416e+02 -8.511228e+00 0.000000e+00 
-1.781620e+02 -2.775310e+01 0.000000e+00 
-1.431030e+02 -4.215437e+01 0.000000e+00 
-9.955442e+01 -4.762838e+01 0.000000e+00 
-5.554442e+01 -4.277215e+01 0.000000e+00 
-1.925929e+01 -3.038367e+01 0.000000e+00 
4.576584e+00 -1.599639e+01 0.000000e+00 
1.727460e+01 -4.140642e+00 0.000000e+00 
2.256920e+01 4.422979e+00 0.000000e+00 
2.286851e+01 9.963460e+00 0.000000e+00 
2.019276e+01 1.284288e+01 0.000000e+00 
1.641563e+01 1.381009e+01 0.000000e+00 
1.265358e+01 1.360693e+01 0.000000e+00 
9.332407e+00 1.269734e+01 0.000000e+00 
6.419739e+00 1.123668e+01 0.000000e+00 
4.152902e+00 9.433347e+00 0.000000e+00 
2.526709e+00 7.482582e+00 0.000000e+00 
1.425241e+00 5.508670e+00 0.000000e+00 
7.299507e-01 3.627544e+00 0.000000e+00 
3.032866e-01 1.873742e+00 0.000000e+00 
0.000000e+00 0.000000e+00 0.000000e+00 
6.921202e-02 -1.070579e+00 0.000000e+00 
0.000000e+00 0.000000e+00 0.000000e+00 
1.540113e-01 -1.939290e+00 0.000000e+00 
2.623177e-01 -2.698961e+00 0.000000e+00 
3.779792e-01 -3.250229e+00 0.000000e+00 
4.491326e-01 -3.448030e+00 0.000000e+00 
3.702347e-01 -3.136930e+00 0.000000e+00 
-3.451268e-02 -2.176991e+00 0.000000e+00 
-9.504025e-01 -5.651626e-01 0.000000e+00 
-2.765263e+00 1.853163e+00 0.000000e+00 
-6.103032e+00 5.179867e+00 0.000000e+00 
-1.180015e+01 9.389625e+00 0.000000e+00 
-2.064188e+01 1.433458e+01 0.000000e+00 
-3.328807e+01 1.995759e+01 0.000000e+00 
-5.114824e+01 2.655632e+01 0.000000e+00 
-7.660560e+01 3.429515e+01 0.000000e+00 
-1.103253e+02 4.182948e+01 0.000000e+00 
-1.494014e+02 4.610968e+01 0.000000e+00 
-1.877991e+02 4.365137e+01 0.000000e+00 
-2.181895e+02 3.236264e+01 0.000000e+00 
-2.345483e+02 1.277705e+01 0.000000e+00 
-2.332649e+02 -1.200797e+01 0.000000e+00 
-2.139277e+02 -3.681475e+01 0.000000e+00 
-1.791417e+02 -5.588529e+01 0.000000e+00 
-1.341084e+02 -6.429535e+01 0.000000e+00 
-8.615056e+01 -5.981700e+01 0.000000e+00 
-4.378801e+01 -4.501529e+01 0.000000e+00 
-1.346940e+01 -2.652229e+01 0.000000e+00 
4.581871e+00 -1.042927e+01 0.000000e+00 
1.405322e+01 1.799888e+00 0.000000e+00 
1.747351e+01 1.018387e+01 0.000000e+00 
1.689980e+01 1.494704e+01 0.000000e+00 
1.443146e+01 1.695584e+01 0.000000e+00 
1.145346e+01 1.719969e+01 0.000000e+00 
8.608711e+00 1.635734e+01 0.000000e+00 
6.004160e+00 1.469389e+01 0.000000e+00 
3.923884e+00 1.249106e+01 0.000000e+00 
2.409147e+00 1.001752e+01 0.000000e+00 
1.372520e+00 7.448184e+00 0.000000e+00 
7.107955e-01 4.947701e+00 0.000000e+00 
2.985512e-01 2.575260e+00 0.000000e+00 
0.000000e+00 0.000000e+00 0.000000e+00 
3.968680e-03 -1.149389e+00 0.000000e+00 
0.000000e+00 0.000000e+00 0.000000e+00 
-4.338898e-03 -2.036295e+00 0.000000e+00 
-5.412469e-02 -2.743794e+00 0.000000e+00 
-2.016998e-01 -3.140660e+00 0.000000e+00 
-5.415360e-01 -3.049024e+00 0.000000e+00 
-1.224392e+00 -2.272869e+00 0.000000e+00 
-2.463056e+00 -6.423104e-01 0.000000e+00 
-4.439423e+00 1.829366e+00 0.000000e+00 
-7.682628e+00 5.384349e+00 0.000000e+00 
-1.295549e+01 1.020357e+01 0.000000e+00 
-2.122958e+01 1.631603e+01 0.000000e+00 
-3.335746e+01 2.354411e+01 0.000000e+00 
-4.999463e+01 3.173018e+01 0.000000e+00 
-7.261266e+01 4.106219e+01 0.000000e+00 
-1.034769e+02 5.133240e+01 0.000000e+00 
-1.422563e+02 6.021087e+01 0.000000e+00 
-1.846552e+02 6.360789e+01 0.000000e+00 
-2.242631e+02 5.781378e+01 0.000000e+00 
-2.548313e+02 4.139294e+01 0.000000e+00 
-2.717422e+02 1.568074e+01 0.000000e+00 
-2.720117e+02 -1.569969e+01 0.000000e+00 
-2.549300e+02 -4.710228e+01 0.000000e+00 
-2.220375e+02 -7.217852e+01 0.000000e+00 
-1.770331e+02 -8.509666e+01 0.000000e+00 
-1.260024e+02 -8.245521e+01 0.000000e+00 
-7.730552e+01 -6.600854e+01 0.000000e+00 
-3.919358e+01 -4.308145e+01 0.000000e+00 
-1.420699e+01 -2.167177e+01 0.000000e+00 
7.799861e-01 -4.521044e+00 0.000000e+00 
8.430389e+00 7.895594e+00 0.000000e+00 
1.085531e+01 1.549334e+01 0.000000e+00 
1.038957e+01 1.921223e+01 0.000000e+00 
8.735852e+00 2.034798e+01 0.000000e+00 
6.783731e+00 1.985145e+01 0.000000e+00 
4.830060e+00 1.815106e+01 0.000000e+00 
3.196539e+00 1.562229e+01 0.000000e+00 
1.979721e+00 1.264129e+01 0.000000e+00 
1.136702e+00 9.462111e+00 0.000000e+00 
5.935022e-01 6.317448e+00 0.000000e+00 
2.514535e-01 3.301344e+00 0.000000e+00 
0.000000e+00 0.000000e+00 0.000000e+00 
-9.939067e-02 -9.853423e-01 0.000000e+00 
0.000000e+00 0.000000e+00 0.000000e+00 
-2.546241e-01 -1.648593e+00 0.000000e+00 
-5.513167e-01 -2.026681e+00 0.000000e+00 
-1.100027e+00 -1.952716e+00 0.000000e+00 
-2.048647e+00 -1.220482e+00 0.000000e+00 
-3.611932e+00 4.028418e-01 0.000000e+00 
-6.043226e+00 3.100208e+00 0.000000e+00 
-9.493925e+00 6.821333e+00 0.000000e+00 
-1.466075e+01 1.195760e+01 0.000000e+00 
-2.245978e+01 1.881243e+01 0.000000e+00 
-3.398547e+01 2.749080e+01 0.000000e+00 
-5.008180e+01 3.774059e+01 0.000000e+00 
-7.124891e+01 4.916632e+01 0.000000e+00 
-9.880276e+01 6.163920e+01 0.000000e+00 
-1.345601e+02 7.427750e+01 0.000000e+00 
-1.770068e+02 8.356385e+01 0.000000e+00 
-2.209765e+02 8.469927e+01 0.000000e+00 
-2.605989e+02 7.437183e+01 0.000000e+00 
-2.909624e+02 5.202511e+01 0.000000e+00 
-3.084947e+02 1.959611e+01 0.000000e+00 
-3.108105e+02 -1.898364e+01 0.000000e+00 
-2.972031e+02 -5.781368e+01 0.000000e+00 
-2.682225e+02 -9.023399e+01 0.000000e+00 
-2.257206e+02 -1.096316e+02 0.000000e+00 
-1.738225e+02 -1.111641e+02 0.000000e+00 
-1.198181e+02 -9.496121e+01 0.000000e+00 